TITLE = Simulation Result of "testData"
VARIABLES = "X", "Y" , "CPU numbers"
ZONE
T="testData"
DATAPACKING= BLOCK
NODES=21285
ELEMENTS=20887
ZONETYPE = FEQUADRILATERAL
VARLOCATION = ([3]=CELLCENTERED)
6.0000000000000000e+01
6.0500000000000000e+01
6.1236918298207712e+01
6.2254928356897970e+01
6.3542304174208581e+01
6.5000000000000000e+01
6.6457695825791419e+01
6.7745071643102023e+01
6.8763081701792288e+01
6.9500000000000000e+01
7.0000000000000000e+01
7.1000000000000000e+01
7.2000000000000000e+01
7.3000000000000000e+01
7.4000000000000000e+01
7.5000000000000000e+01
7.6000000000000000e+01
7.7000000000000000e+01
7.8000000000000000e+01
7.9000000000000000e+01
8.0000000000000000e+01
8.0665723848111668e+01
8.1427756771372870e+01
8.2290437337936439e+01
8.3254915708089939e+01
8.4318236806630011e+01
8.5472615947921810e+01
8.6705086774682798e+01
8.7997681761494334e+01
8.9328233410121328e+01
9.0671766589878672e+01
9.2002318238505666e+01
9.3294913225317188e+01
9.4527384052078190e+01
9.5681763193369989e+01
9.6745084291910061e+01
9.7709562662063547e+01
9.8572243228627116e+01
9.9334276151888346e+01
1.0000000000000000e+02
1.0000000000000000e+02
1.0000000000000000e+02
1.0000000000000000e+02
1.0000000000000000e+02
1.0000000000000000e+02
1.0000000000000000e+02
1.0000000000000000e+02
1.0000000000000000e+02
1.0000000000000000e+02
1.0000000000000000e+02
1.0000000000000000e+02
1.0000000000000000e+02
1.0000000000000000e+02
1.0000000000000000e+02
0.0000000000000000e+00
1.0000000000000000e+00
2.0000000000000000e+00
3.0000000000000000e+00
4.0000000000000000e+00
5.0000000000000000e+00
6.0000000000000000e+00
7.0000000000000009e+00
8.0000000000000000e+00
9.0000000000000000e+00
1.0000000000000000e+01
1.1000000000000000e+01
1.2000000000000000e+01
1.3000000000000000e+01
1.4000000000000000e+01
1.5000000000000000e+01
1.6000000000000000e+01
1.7000000000000000e+01
1.8000000000000000e+01
1.9000000000000000e+01
2.0000000000000000e+01
2.1000000000000000e+01
2.2000000000000000e+01
2.3000000000000000e+01
2.4000000000000000e+01
2.5000000000000000e+01
2.6000000000000000e+01
2.7000000000000000e+01
2.8000000000000000e+01
2.9000000000000000e+01
3.0000000000000000e+01
3.1000000000000000e+01
3.2000000000000000e+01
3.3000000000000000e+01
3.4000000000000000e+01
3.5000000000000000e+01
3.6000000000000000e+01
3.7000000000000000e+01
3.8000000000000000e+01
3.9000000000000000e+01
4.0000000000000000e+01
4.1000000000000000e+01
4.2000000000000000e+01
4.3000000000000000e+01
4.4000000000000000e+01
4.5000000000000000e+01
4.6000000000000000e+01
4.7000000000000000e+01
4.8000000000000000e+01
4.9000000000000000e+01
5.0000000000000000e+01
5.0000000000000000e+01
5.0000000000000000e+01
5.0000000000000000e+01
5.0000000000000000e+01
1.0000000000000000e+00
2.0000000000000000e+00
3.0000000000000000e+00
4.0000000000000000e+00
5.0000000000000000e+00
6.0000000000000000e+00
7.0000000000000009e+00
8.0000000000000000e+00
9.0000000000000000e+00
1.0000000000000000e+01
1.1000000000000000e+01
1.2000000000000000e+01
1.3000000000000000e+01
1.4000000000000000e+01
1.5000000000000000e+01
1.6000000000000000e+01
1.7000000000000000e+01
1.8000000000000000e+01
1.9000000000000000e+01
2.0000000000000000e+01
2.1000000000000000e+01
2.2000000000000000e+01
2.3000000000000000e+01
2.4000000000000000e+01
2.5000000000000000e+01
2.6000000000000000e+01
2.7000000000000000e+01
2.8000000000000000e+01
2.9000000000000000e+01
3.0000000000000000e+01
3.1000000000000000e+01
3.2000000000000000e+01
3.3000000000000000e+01
3.4000000000000000e+01
3.5000000000000000e+01
3.6000000000000000e+01
3.7000000000000000e+01
3.8000000000000000e+01
3.9000000000000000e+01
4.0000000000000000e+01
4.1000000000000000e+01
4.2000000000000000e+01
4.3000000000000000e+01
4.4000000000000000e+01
4.5000000000000000e+01
4.6000000000000000e+01
4.7000000000000000e+01
4.8000000000000000e+01
4.9000000000000000e+01
0.0000000000000000e+00
5.0000000000000000e+01
5.1000000000000000e+01
5.2000000000000000e+01
5.3000000000000000e+01
5.4000000000000000e+01
5.5000000000000000e+01
5.6000000000000000e+01
5.7000000000000000e+01
5.8000000000000000e+01
5.9000000000000000e+01
0.0000000000000000e+00
0.0000000000000000e+00
0.0000000000000000e+00
0.0000000000000000e+00
0.0000000000000000e+00
0.0000000000000000e+00
0.0000000000000000e+00
0.0000000000000000e+00
0.0000000000000000e+00
5.0000000000000000e+01
5.0000000000000000e+01
5.0000000000000000e+01
5.0000000000000000e+01
5.0000000000000000e+01
5.0000000000000000e+01
5.0000000000000000e+01
5.0000000000000000e+01
5.0000000000000000e+01
5.1000000000000000e+01
5.2000000000000000e+01
5.3000000000000000e+01
5.4000000000000000e+01
5.5000000000000000e+01
5.6000000000000000e+01
5.7000000000000000e+01
5.8000000000000000e+01
5.9000000000000000e+01
6.0000000000000000e+01
6.1000000000000000e+01
6.2000000000000000e+01
6.3000000000000000e+01
6.4000000000000000e+01
6.5000000000000000e+01
6.6000000000000000e+01
6.7000000000000000e+01
6.8000000000000000e+01
6.9000000000000000e+01
7.0000000000000000e+01
7.1000000000000000e+01
7.2000000000000000e+01
7.3000000000000000e+01
7.4000000000000000e+01
7.5000000000000000e+01
7.6000000000000014e+01
7.7000000000000000e+01
7.8000000000000000e+01
7.9000000000000000e+01
8.0000000000000000e+01
8.0700000000000003e+01
8.1490669127893540e+01
8.2374531394244968e+01
8.3351182235387114e+01
8.4416633944351318e+01
8.5562848366789041e+01
8.6777577707740548e+01
8.8044611421779010e+01
8.9344472527750781e+01
9.0655527472249190e+01
9.1955388578220976e+01
9.3222422292259438e+01
9.4437151633210959e+01
9.5583366055648654e+01
9.6648817764612872e+01
9.7625468605755003e+01
9.8509330872106460e+01
9.9300000000000011e+01
1.0000000000000000e+00
2.0000000000000000e+00
3.0000000000000000e+00
4.0000000000000000e+00
5.0000000000000000e+00
6.0000000000000000e+00
6.9999999999999991e+00
8.0000000000000000e+00
9.0000000000000000e+00
1.0000000000000000e+01
1.1000000000000000e+01
1.2000000000000000e+01
1.3000000000000000e+01
1.4000000000000000e+01
1.5000000000000000e+01
1.6000000000000000e+01
1.7000000000000000e+01
1.8000000000000000e+01
1.9000000000000011e+01
2.0000000000000000e+01
2.1000000000000000e+01
2.2000000000000000e+01
2.3000000000000000e+01
2.4000000000000000e+01
2.5000000000000000e+01
2.6000000000000000e+01
2.7000000000000000e+01
2.8000000000000000e+01
2.9000000000000000e+01
3.0000000000000000e+01
3.1000000000000000e+01
3.2000000000000000e+01
3.3000000000000000e+01
3.4000000000000000e+01
3.5000000000000000e+01
3.6000000000000000e+01
3.7000000000000000e+01
3.8000000000000007e+01
3.9000000000000000e+01
4.0000000000000000e+01
4.1000000000000000e+01
4.2000000000000000e+01
4.3000000000000000e+01
4.4000000000000000e+01
4.5000000000000000e+01
4.6000000000000000e+01
4.6999999999999993e+01
4.8000000000000000e+01
4.9000000000000000e+01
9.9999999999999978e-01
2.0000000000000000e+00
3.0000000000000000e+00
3.9999999999999991e+00
5.0000000000000018e+00
6.0000000000000000e+00
6.9999999999999991e+00
7.9999999999999982e+00
9.0000000000000000e+00
1.0000000000000000e+01
1.1000000000000000e+01
1.2000000000000000e+01
1.3000000000000000e+01
1.4000000000000000e+01
1.5000000000000000e+01
1.6000000000000000e+01
1.6999999999999989e+01
1.8000000000000000e+01
1.9000000000000000e+01
2.0000000000000011e+01
2.1000000000000000e+01
2.2000000000000000e+01
2.3000000000000000e+01
2.4000000000000000e+01
2.5000000000000000e+01
2.6000000000000000e+01
2.7000000000000000e+01
2.8000000000000000e+01
2.9000000000000000e+01
3.0000000000000000e+01
3.1000000000000000e+01
3.1999999999999989e+01
3.3000000000000000e+01
3.3999999999999993e+01
3.5000000000000000e+01
3.6000000000000000e+01
3.7000000000000000e+01
3.8000000000000000e+01
3.9000000000000007e+01
4.0000000000000007e+01
4.0999999999999993e+01
4.2000000000000000e+01
4.2999999999999993e+01
4.4000000000000000e+01
4.5000000000000000e+01
4.6000000000000000e+01
4.7000000000000007e+01
4.8000000000000000e+01
4.9000000000000000e+01
1.0000000000000000e+00
2.0000000000000000e+00
2.9999999999999991e+00
4.0000000000000000e+00
5.0000000000000000e+00
5.9999999999999982e+00
7.0000000000000009e+00
8.0000000000000000e+00
8.9999999999999964e+00
1.0000000000000000e+01
1.1000000000000000e+01
1.2000000000000000e+01
1.3000000000000000e+01
1.4000000000000000e+01
1.5000000000000000e+01
1.6000000000000000e+01
1.7000000000000000e+01
1.7999999999999989e+01
1.9000000000000000e+01
2.0000000000000000e+01
2.1000000000000000e+01
2.2000000000000000e+01
2.3000000000000000e+01
2.3999999999999989e+01
2.5000000000000000e+01
2.6000000000000000e+01
2.7000000000000000e+01
2.8000000000000000e+01
2.9000000000000000e+01
3.0000000000000000e+01
3.1000000000000000e+01
3.2000000000000000e+01
3.3000000000000000e+01
3.4000000000000000e+01
3.5000000000000000e+01
3.5999999999999993e+01
3.7000000000000000e+01
3.8000000000000000e+01
3.9000000000000000e+01
4.0000000000000000e+01
4.1000000000000000e+01
4.2000000000000000e+01
4.2999999999999993e+01
4.4000000000000000e+01
4.5000000000000000e+01
4.6000000000000000e+01
4.7000000000000000e+01
4.7999999999999993e+01
4.9000000000000000e+01
1.0000000000000000e+00
2.0000000000000000e+00
3.0000000000000000e+00
4.0000000000000000e+00
5.0000000000000000e+00
6.0000000000000000e+00
7.0000000000000018e+00
8.0000000000000000e+00
9.0000000000000000e+00
1.0000000000000000e+01
1.1000000000000000e+01
1.2000000000000000e+01
1.3000000000000000e+01
1.4000000000000000e+01
1.5000000000000000e+01
1.6000000000000000e+01
1.7000000000000000e+01
1.8000000000000000e+01
1.9000000000000000e+01
2.0000000000000000e+01
2.1000000000000000e+01
2.2000000000000000e+01
2.3000000000000000e+01
2.4000000000000000e+01
2.5000000000000000e+01
2.6000000000000000e+01
2.7000000000000000e+01
2.8000000000000011e+01
2.8999999999999989e+01
3.0000000000000000e+01
3.1000000000000000e+01
3.2000000000000000e+01
3.3000000000000000e+01
3.4000000000000000e+01
3.5000000000000000e+01
3.6000000000000000e+01
3.7000000000000000e+01
3.8000000000000000e+01
3.9000000000000000e+01
4.0000000000000000e+01
4.1000000000000000e+01
4.2000000000000000e+01
4.3000000000000000e+01
4.4000000000000000e+01
4.5000000000000000e+01
4.6000000000000000e+01
4.7000000000000000e+01
4.8000000000000000e+01
4.9000000000000000e+01
1.0000000000000000e+00
2.0000000000000000e+00
3.0000000000000000e+00
4.0000000000000000e+00
5.0000000000000000e+00
6.0000000000000000e+00
7.0000000000000009e+00
8.0000000000000000e+00
9.0000000000000000e+00
1.0000000000000000e+01
1.1000000000000000e+01
1.2000000000000000e+01
1.3000000000000000e+01
1.4000000000000000e+01
1.5000000000000000e+01
1.6000000000000000e+01
1.7000000000000000e+01
1.8000000000000000e+01
1.9000000000000000e+01
2.0000000000000000e+01
2.1000000000000000e+01
2.2000000000000000e+01
2.3000000000000000e+01
2.4000000000000000e+01
2.5000000000000000e+01
2.6000000000000000e+01
2.7000000000000000e+01
2.8000000000000000e+01
2.9000000000000000e+01
3.0000000000000000e+01
3.1000000000000000e+01
3.2000000000000000e+01
3.3000000000000000e+01
3.4000000000000000e+01
3.5000000000000000e+01
3.6000000000000000e+01
3.7000000000000000e+01
3.8000000000000000e+01
3.9000000000000000e+01
4.0000000000000000e+01
4.1000000000000000e+01
4.2000000000000000e+01
4.3000000000000000e+01
4.4000000000000000e+01
4.5000000000000000e+01
4.6000000000000000e+01
4.7000000000000000e+01
4.8000000000000000e+01
4.9000000000000000e+01
1.0000000000000000e+00
2.0000000000000000e+00
3.0000000000000000e+00
4.0000000000000000e+00
5.0000000000000000e+00
6.0000000000000000e+00
7.0000000000000000e+00
8.0000000000000000e+00
9.0000000000000000e+00
1.0000000000000000e+01
1.1000000000000000e+01
1.2000000000000000e+01
1.3000000000000000e+01
1.4000000000000000e+01
1.5000000000000000e+01
1.6000000000000000e+01
1.7000000000000000e+01
1.8000000000000000e+01
1.9000000000000000e+01
2.0000000000000000e+01
2.1000000000000000e+01
2.2000000000000000e+01
2.3000000000000000e+01
2.4000000000000000e+01
2.5000000000000000e+01
2.6000000000000000e+01
2.7000000000000000e+01
2.8000000000000000e+01
2.9000000000000000e+01
3.0000000000000000e+01
3.1000000000000000e+01
3.2000000000000000e+01
3.3000000000000000e+01
3.4000000000000000e+01
3.5000000000000000e+01
3.6000000000000000e+01
3.7000000000000000e+01
3.8000000000000000e+01
3.9000000000000000e+01
4.0000000000000000e+01
4.1000000000000000e+01
4.2000000000000000e+01
4.3000000000000000e+01
4.4000000000000000e+01
4.5000000000000000e+01
4.6000000000000000e+01
4.7000000000000000e+01
4.8000000000000000e+01
4.9000000000000000e+01
1.0000000000000000e+00
2.0000000000000000e+00
3.0000000000000000e+00
4.0000000000000000e+00
5.0000000000000000e+00
6.0000000000000000e+00
6.9999999999999991e+00
8.0000000000000000e+00
9.0000000000000000e+00
1.0000000000000000e+01
1.1000000000000000e+01
1.2000000000000000e+01
1.3000000000000000e+01
1.4000000000000000e+01
1.5000000000000000e+01
1.6000000000000000e+01
1.7000000000000000e+01
1.8000000000000000e+01
1.9000000000000000e+01
2.0000000000000000e+01
2.1000000000000000e+01
2.2000000000000000e+01
2.3000000000000000e+01
2.4000000000000000e+01
2.5000000000000000e+01
2.6000000000000000e+01
2.7000000000000000e+01
2.8000000000000000e+01
2.9000000000000000e+01
3.0000000000000000e+01
3.1000000000000000e+01
3.2000000000000000e+01
3.3000000000000000e+01
3.4000000000000000e+01
3.5000000000000000e+01
3.6000000000000000e+01
3.7000000000000000e+01
3.8000000000000000e+01
3.9000000000000000e+01
4.0000000000000000e+01
4.1000000000000000e+01
4.2000000000000000e+01
4.3000000000000000e+01
4.4000000000000000e+01
4.5000000000000000e+01
4.6000000000000000e+01
4.7000000000000000e+01
4.8000000000000000e+01
4.9000000000000000e+01
1.0000000000000000e+00
2.0000000000000000e+00
3.0000000000000000e+00
4.0000000000000000e+00
5.0000000000000000e+00
6.0000000000000000e+00
7.0000000000000009e+00
8.0000000000000000e+00
9.0000000000000000e+00
1.0000000000000000e+01
1.1000000000000000e+01
1.2000000000000000e+01
1.3000000000000000e+01
1.4000000000000000e+01
1.5000000000000000e+01
1.6000000000000000e+01
1.7000000000000000e+01
1.8000000000000000e+01
1.9000000000000000e+01
2.0000000000000000e+01
2.1000000000000000e+01
2.2000000000000000e+01
2.3000000000000000e+01
2.4000000000000000e+01
2.5000000000000000e+01
2.6000000000000000e+01
2.7000000000000000e+01
2.8000000000000000e+01
2.9000000000000000e+01
3.0000000000000000e+01
3.1000000000000000e+01
3.2000000000000000e+01
3.3000000000000000e+01
3.4000000000000000e+01
3.5000000000000000e+01
3.6000000000000000e+01
3.7000000000000000e+01
3.8000000000000000e+01
3.9000000000000000e+01
4.0000000000000000e+01
4.1000000000000000e+01
4.2000000000000000e+01
4.3000000000000000e+01
4.4000000000000000e+01
4.5000000000000000e+01
4.6000000000000000e+01
4.7000000000000000e+01
4.8000000000000000e+01
4.9000000000000000e+01
1.0000000000000000e+00
2.0000000000000000e+00
3.0000000000000000e+00
4.0000000000000000e+00
5.0000000000000000e+00
6.0000000000000000e+00
7.0000000000000009e+00
8.0000000000000000e+00
9.0000000000000000e+00
1.0000000000000000e+01
1.1000000000000000e+01
1.2000000000000000e+01
1.3000000000000000e+01
1.4000000000000000e+01
1.5000000000000000e+01
1.6000000000000000e+01
1.7000000000000000e+01
1.8000000000000000e+01
1.9000000000000000e+01
2.0000000000000000e+01
2.1000000000000000e+01
2.2000000000000000e+01
2.3000000000000000e+01
2.4000000000000000e+01
2.5000000000000000e+01
2.6000000000000000e+01
2.7000000000000000e+01
2.8000000000000000e+01
2.9000000000000000e+01
3.0000000000000000e+01
3.1000000000000000e+01
3.2000000000000000e+01
3.3000000000000000e+01
3.4000000000000000e+01
3.5000000000000000e+01
3.6000000000000000e+01
3.7000000000000000e+01
3.8000000000000000e+01
3.9000000000000000e+01
4.0000000000000000e+01
4.1000000000000000e+01
4.2000000000000000e+01
4.3000000000000000e+01
4.4000000000000000e+01
4.5000000000000000e+01
4.6000000000000000e+01
4.7000000000000000e+01
4.8000000000000000e+01
4.9000000000000000e+01
5.1000000000000000e+01
5.2000000000000000e+01
5.2999999999999993e+01
5.3999999999999993e+01
5.5000000000000000e+01
5.6000000000000007e+01
5.7000000000000000e+01
5.8000000000000000e+01
5.9000000000000000e+01
6.0000000000000000e+01
6.0979154163637148e+01
6.1967611622281353e+01
6.2967808860698781e+01
6.3979872593198273e+01
6.4999999999999986e+01
6.6020838051571744e+01
6.7034496344419736e+01
6.8035911696453311e+01
6.9023906701854386e+01
7.0000000000000028e+01
7.1000000000000000e+01
7.2000000000000000e+01
7.3000000000000028e+01
7.4000000000000000e+01
7.5000000000000000e+01
7.6000000000000014e+01
7.7000000000000000e+01
7.8000000000000000e+01
7.9000000000000000e+01
8.0000000000000028e+01
8.0698056643356864e+01
8.1487064316821488e+01
8.2369656272445724e+01
8.3345529775236557e+01
8.4410776408129863e+01
8.5557397927441954e+01
8.6773131682771648e+01
8.8041687693064546e+01
8.9343444693686365e+01
9.0656571581533257e+01
9.1958452598658397e+01
9.3227225404950886e+01
9.4443214020102971e+01
9.5590063146036400e+01
9.6655448138174606e+01
9.7631323249752668e+01
9.8513753225644010e+01
9.9302430042101875e+01
5.1000000000000007e+01
5.1999999999999993e+01
5.2999999999999993e+01
5.4000000000000007e+01
5.5000000000000000e+01
5.6000000000000000e+01
5.7000000000000007e+01
5.8000000000000000e+01
5.9000000000000000e+01
5.9999999999999993e+01
6.0932294894864647e+01
6.1896531094356227e+01
6.2898831298078932e+01
6.3937762033221858e+01
6.5000000000000000e+01
6.6062422485913231e+01
6.7101762999875092e+01
6.8104368149899159e+01
6.9068477579658364e+01
6.9999999999999986e+01
7.1000000000000000e+01
7.2000000000000000e+01
7.3000000000000014e+01
7.4000000000000014e+01
7.4999999999999986e+01
7.6000000000000014e+01
7.6999999999999986e+01
7.8000000000000000e+01
7.9000000000000028e+01
8.0000000000000000e+01
8.0695229975401276e+01
8.1481904494896384e+01
8.2362801666438372e+01
8.3337736699707136e+01
8.4402870781022855e+01
8.5550207430436231e+01
8.6767405352867257e+01
8.8038014569076381e+01
8.9342185760884718e+01
9.0657818326077987e+01
9.1962020658235403e+01
9.3232684301409094e+01
9.4449946185583400e+01
9.5597339925676110e+01
9.6662508670881451e+01
9.7637444041007171e+01
9.8518300522115496e+01
9.9304892036135655e+01
5.1000000000000000e+01
5.2000000000000000e+01
5.3000000000000000e+01
5.4000000000000000e+01
5.4999999999999993e+01
5.6000000000000000e+01
5.7000000000000007e+01
5.8000000000000007e+01
5.9000000000000000e+01
6.0000000000000007e+01
6.0885397492018257e+01
6.1825370127039513e+01
6.2829775476121632e+01
6.3895616284569357e+01
6.5000000000000000e+01
6.6104000951762103e+01
6.7168999909421245e+01
6.8172794529378791e+01
6.9113043032513787e+01
7.0000000000000000e+01
7.1000000000000000e+01
7.2000000000000000e+01
7.3000000000000014e+01
7.4000000000000000e+01
7.5000000000000000e+01
7.5999999999999986e+01
7.6999999999999986e+01
7.8000000000000000e+01
7.9000000000000014e+01
8.0000000000000000e+01
8.0692401305684740e+01
8.1476740986077630e+01
8.2355942201192349e+01
8.3329938251324378e+01
8.4394959975132807e+01
8.5543012577496825e+01
8.6761675914393479e+01
8.8034339722749564e+01
8.9340926339897692e+01
9.0659065449836504e+01
9.1965589513654578e+01
9.3238144011840333e+01
9.4456678931334224e+01
9.5604616974026953e+01
9.6669569221792386e+01
9.7643564728977125e+01
9.8522847716230388e+01
9.9307353990424772e+01
5.1000000000000007e+01
5.2000000000000000e+01
5.3000000000000007e+01
5.4000000000000007e+01
5.5000000000000007e+01
5.6000000000000000e+01
5.7000000000000000e+01
5.7999999999999993e+01
5.9000000000000007e+01
6.0000000000000000e+01
6.0864608145909131e+01
6.1793101190023478e+01
6.2797700827969727e+01
6.3875541392677931e+01
6.5000000000000000e+01
6.6124847958551356e+01
6.7203541004339485e+01
6.8208751587783652e+01
6.9136957937793881e+01
7.0000000000000000e+01
7.1000000000000000e+01
7.1999999999999986e+01
7.3000000000000000e+01
7.4000000000000014e+01
7.5000000000000000e+01
7.6000000000000028e+01
7.7000000000000014e+01
7.8000000000000000e+01
7.8999999999999972e+01
8.0000000000000000e+01
8.0690461076266942e+01
8.1473141948462484e+01
8.2351074709062019e+01
8.3324294252568279e+01
8.4389110621686541e+01
8.5537569045638733e+01
8.6757234838034194e+01
8.8031418747146120e+01
8.9339899289527551e+01
9.0660108947689508e+01
9.1968652245236456e+01
9.3242945800555205e+01
9.4462740370373638e+01
9.5611313623702529e+01
9.6676199565383598e+01
9.7649419543619487e+01
9.8527270239425761e+01
9.9309784098596140e+01
5.1000000000000007e+01
5.1999999999999993e+01
5.3000000000000007e+01
5.3999999999999993e+01
5.5000000000000000e+01
5.5999999999999993e+01
5.7000000000000000e+01
5.8000000000000007e+01
5.8999999999999993e+01
5.9999999999999993e+01
6.0846453781979143e+01
6.1764773791299760e+01
6.2769376630707477e+01
6.3857697806438651e+01
6.5000000000000000e+01
6.6143626175436850e+01
6.7234834833842854e+01
6.8241484858270738e+01
6.9158812062037384e+01
7.0000000000000000e+01
7.1000000000000014e+01
7.2000000000000000e+01
7.3000000000000014e+01
7.4000000000000000e+01
7.5000000000000000e+01
7.6000000000000014e+01
7.7000000000000000e+01
7.8000000000000000e+01
7.9000000000000028e+01
8.0000000000000000e+01
8.0688611758703317e+01
8.1469703233815238e+01
8.2346411623123757e+01
8.3318871583135362e+01
8.4383473218922774e+01
8.5532305652043220e+01
8.6752926265394009e+01
8.8028575246577390e+01
8.9338896084630107e+01
9.0661131597090233e+01
9.1971663316645305e+01
9.3247680696868230e+01
9.4468733874529434e+01
9.5617951852269982e+01
9.6682786861851042e+01
9.7655247923640928e+01
9.8531680449567091e+01
9.9312211082914743e+01
5.0999999999999993e+01
5.2000000000000000e+01
5.3000000000000000e+01
5.4000000000000000e+01
5.5000000000000000e+01
5.6000000000000000e+01
5.7000000000000000e+01
5.8000000000000000e+01
5.9000000000000000e+01
6.0000000000000007e+01
6.0820994586611867e+01
6.1725575535256283e+01
6.2730716767378681e+01
6.3833680667847460e+01
6.5000000000000000e+01
6.6168221254403335e+01
6.7275312149550672e+01
6.8283338367079466e+01
6.9186460165324192e+01
7.0000000000000000e+01
7.1000000000000000e+01
7.2000000000000000e+01
7.3000000000000014e+01
7.4000000000000000e+01
7.5000000000000000e+01
7.6000000000000000e+01
7.7000000000000014e+01
7.8000000000000000e+01
7.9000000000000000e+01
7.9999999999999986e+01
8.0686514337146633e+01
8.1465827726999265e+01
8.2341192496376507e+01
8.3312847606879416e+01
8.4377260512147416e+01
8.5526553505963520e+01
8.6748258107596143e+01
8.8025521296287238e+01
8.9337827990706387e+01
9.0662211133638678e+01
9.1974815863349050e+01
9.3252599623277234e+01
9.4474915296872950e+01
9.5624752688981744e+01
9.6689494797382935e+01
9.7661150930734934e+01
9.8536125687005637e+01
9.9314647023315132e+01
5.1000000000000000e+01
5.2000000000000000e+01
5.3000000000000000e+01
5.4000000000000000e+01
5.5000000000000007e+01
5.6000000000000007e+01
5.7000000000000000e+01
5.7999999999999993e+01
5.9000000000000000e+01
6.0000000000000007e+01
6.0785222134359337e+01
6.1671011697194501e+01
6.2677444895418454e+01
6.3800943208948553e+01
6.5000000000000014e+01
6.6201003383791715e+01
6.7328698054756700e+01
6.8338010443816955e+01
6.9222263157250779e+01
7.0000000000000000e+01
7.1000000000000014e+01
7.2000000000000000e+01
7.3000000000000000e+01
7.4000000000000000e+01
7.4999999999999986e+01
7.6000000000000014e+01
7.7000000000000000e+01
7.8000000000000000e+01
7.9000000000000014e+01
8.0000000000000000e+01
8.0684065216872341e+01
8.1461332781955662e+01
8.2335184507034342e+01
8.3305970261369083e+01
8.4370231135683767e+01
8.5520107464121651e+01
8.6743079448551185e+01
8.8022168633817870e+01
8.9336667832055454e+01
9.0663371329242537e+01
9.1978168825992668e+01
9.3257778955341479e+01
9.4481362268049821e+01
9.5631782954376774e+01
9.6696372656799213e+01
9.7667158861338578e+01
9.8540620078610033e+01
9.9317095507666693e+01
5.0999999999999993e+01
5.1999999999999993e+01
5.3000000000000000e+01
5.3999999999999993e+01
5.5000000000000000e+01
5.6000000000000000e+01
5.7000000000000000e+01
5.8000000000000000e+01
5.9000000000000007e+01
6.0000000000000000e+01
6.0737884395673760e+01
6.1599188248230497e+01
6.2607757221312703e+01
6.3758422544993167e+01
6.5000000000000000e+01
6.6242923000121237e+01
6.7396465819306059e+01
6.8406963198998525e+01
6.9267168261883654e+01
6.9999999999999986e+01
7.0999999999999986e+01
7.2000000000000000e+01
7.3000000000000000e+01
7.4000000000000000e+01
7.5000000000000000e+01
7.6000000000000000e+01
7.7000000000000000e+01
7.8000000000000014e+01
7.9000000000000000e+01
8.0000000000000000e+01
8.0681220561038998e+01
8.1456140947574113e+01
8.2328288760220801e+01
8.3298132359165734e+01
8.4362282409983266e+01
8.5512880297122067e+01
8.6737326210374306e+01
8.8018479878764708e+01
8.9335404141730237e+01
9.0664622166162488e+01
9.1981746807786706e+01
9.3263250351696513e+01
9.4488106713120786e+01
9.5639069890043629e+01
9.6703440346551403e+01
9.7673283833682092e+01
9.8545169218645910e+01
9.9319557942456967e+01
5.0999999999999993e+01
5.1999999999999993e+01
5.3000000000000000e+01
5.4000000000000000e+01
5.5000000000000000e+01
5.6000000000000000e+01
5.7000000000000007e+01
5.8000000000000000e+01
5.9000000000000000e+01
6.0000000000000000e+01
6.0682328789407158e+01
6.1515062165543128e+01
6.2526365880767862e+01
6.3708945978890441e+01
6.4999999999999986e+01
6.6291275873514081e+01
6.7474326283936676e+01
6.8485936943054242e+01
6.9318482651429264e+01
7.0000000000000000e+01
7.0999999999999986e+01
7.2000000000000014e+01
7.3000000000000000e+01
7.4000000000000000e+01
7.4999999999999986e+01
7.6000000000000000e+01
7.7000000000000000e+01
7.8000000000000000e+01
7.8999999999999986e+01
7.9999999999999986e+01
8.0678093921519078e+01
8.1450452061408868e+01
8.2320759604388954e+01
8.3289608964980715e+01
8.4353677581866805e+01
8.5505095774784024e+01
8.6731163164790075e+01
8.8014551572292220e+01
8.9334066726731493e+01
9.0665937473343675e+01
9.1985484616184806e+01
9.3268928867248121e+01
9.4495061746922630e+01
9.5646538191748192e+01
9.6710641913846388e+01
9.7679491187415366e+01
9.8549756818386712e+01
9.9322030158191055e+01
5.1000000000000000e+01
5.2000000000000007e+01
5.3000000000000007e+01
5.3999999999999993e+01
5.5000000000000007e+01
5.6000000000000000e+01
5.7000000000000000e+01
5.8000000000000000e+01
5.8999999999999993e+01
6.0000000000000000e+01
6.0626693386692878e+01
6.1430768032455163e+01
6.2444811536411891e+01
6.3659396441324432e+01
6.5000000000000000e+01
6.6339616502572312e+01
6.7552126008695382e+01
6.8564849481816026e+01
6.9369786021363822e+01
7.0000000000000000e+01
7.1000000000000000e+01
7.2000000000000014e+01
7.2999999999999986e+01
7.4000000000000014e+01
7.4999999999999986e+01
7.6000000000000014e+01
7.6999999999999986e+01
7.8000000000000000e+01
7.9000000000000000e+01
8.0000000000000000e+01
8.0674963374169323e+01
8.1444756001024601e+01
8.2313221028520829e+01
8.3281075199667654e+01
8.4345062805534155e+01
8.5497302929870287e+01
8.6724994214849374e+01
8.8010620015178560e+01
8.9332728396533497e+01
9.0667253486496122e+01
9.1989223895715313e+01
9.3274608876858338e+01
9.4502017838496414e+01
9.5654006980058426e+01
9.6717843513902878e+01
9.7685698356334868e+01
9.8554344235927999e+01
9.9324502303507913e+01
5.1000000000000000e+01
5.2000000000000000e+01
5.2999999999999993e+01
5.4000000000000000e+01
5.5000000000000007e+01
5.6000000000000000e+01
5.7000000000000007e+01
5.8000000000000000e+01
5.8999999999999993e+01
6.0000000000000000e+01
6.0579200561044267e+01
6.1358617441309470e+01
6.2374805909919978e+01
6.3616733102251800e+01
6.5000000000000014e+01
6.6381512050271226e+01
6.7619774074909330e+01
6.8633681355289113e+01
6.9414669321836612e+01
7.0000000000000014e+01
7.1000000000000014e+01
7.2000000000000014e+01
7.3000000000000000e+01
7.4000000000000014e+01
7.5000000000000000e+01
7.6000000000000000e+01
7.7000000000000000e+01
7.8000000000000000e+01
7.9000000000000000e+01
8.0000000000000000e+01
8.0672110765421763e+01
8.1439549534057647e+01
8.2306306020043380e+01
8.3273216030342482e+01
8.4337093614450552e+01
8.5490058580889212e+01
8.6719228739818590e+01
8.8006924495035065e+01
8.9331462793139053e+01
9.0668505805888003e+01
9.1992804981176221e+01
9.3280083439988815e+01
9.4508764535902600e+01
9.5661294956459216e+01
9.6724911274018609e+01
9.7691822930188323e+01
9.8558892981697511e+01
9.9326964585424534e+01
5.1000000000000007e+01
5.1999999999999993e+01
5.3000000000000000e+01
5.4000000000000000e+01
5.5000000000000007e+01
5.6000000000000007e+01
5.6999999999999993e+01
5.8000000000000000e+01
5.9000000000000000e+01
6.0000000000000007e+01
6.0543345401554433e+01
6.1303878133871613e+01
6.2321362296809902e+01
6.3583917938367463e+01
6.4999999999999986e+01
6.6414280829323857e+01
6.7673093019501579e+01
6.8688285311640641e+01
6.9450459951448209e+01
7.0000000000000000e+01
7.1000000000000000e+01
7.2000000000000000e+01
7.3000000000000000e+01
7.4000000000000000e+01
7.5000000000000014e+01
7.6000000000000000e+01
7.7000000000000000e+01
7.8000000000000000e+01
7.9000000000000014e+01
8.0000000000000000e+01
8.0669656725194699e+01
8.1435045478530512e+01
8.2300285950454182e+01
8.3266325237412133e+01
8.4330051179816934e+01
8.5483601466872983e+01
8.6714042110844588e+01
8.8003567376465284e+01
8.9330301359497483e+01
9.0669667001420393e+01
9.1996160062571292e+01
9.3285264959636663e+01
9.4515213080890334e+01
9.5668325957015355e+01
9.6731789183646356e+01
9.7697830573759958e+01
9.8563387086896853e+01
9.9329412957880137e+01
5.1000000000000007e+01
5.2000000000000000e+01
5.2999999999999993e+01
5.4000000000000007e+01
5.5000000000000000e+01
5.6000000000000000e+01
5.7000000000000000e+01
5.8000000000000000e+01
5.8999999999999993e+01
6.0000000000000000e+01
6.0517949930514320e+01
6.1264813345090502e+01
6.2282831012681861e+01
6.3559957890819220e+01
6.5000000000000000e+01
6.6438885309903569e+01
6.7713616554118218e+01
6.8730185024247319e+01
6.9478116317634274e+01
6.9999999999999986e+01
7.1000000000000000e+01
7.2000000000000000e+01
7.3000000000000000e+01
7.3999999999999986e+01
7.4999999999999986e+01
7.6000000000000000e+01
7.6999999999999986e+01
7.8000000000000000e+01
7.9000000000000000e+01
7.9999999999999986e+01
8.0667561927835578e+01
8.1431174744742719e+01
8.2295073023607600e+01
8.3260308002806170e+01
8.4323844848927592e+01
8.5477854570370852e+01
8.6709377611687330e+01
8.8000515401460035e+01
8.9329233810054049e+01
9.0670746127340635e+01
9.1999311773610287e+01
9.3290183057808036e+01
9.4521393931147955e+01