TITLE = "testFluent_tri"
FILETYPE = GRID
VARIABLES = "X" "Y" 
ZONE
T="testFluent_tri"
DATAPACKING= POINT
NODES=290
ELEMENTS=522
ZONETYPE = FEQUADRILATERAL
0.0000000000000000e+00 0.0000000000000000e+00 
1.0526315789473679e+00 0.0000000000000000e+00 
2.1052631578947372e+00 0.0000000000000000e+00 
3.1578947368421049e+00 0.0000000000000000e+00 
4.2105263157894726e+00 0.0000000000000000e+00 
5.2631578947368416e+00 0.0000000000000000e+00 
6.3157894736842106e+00 0.0000000000000000e+00 
7.3684210526315788e+00 0.0000000000000000e+00 
8.4210526315789469e+00 0.0000000000000000e+00 
9.4736842105263150e+00 0.0000000000000000e+00 
1.0526315789473680e+01 0.0000000000000000e+00 
1.1578947368421050e+01 0.0000000000000000e+00 
1.2631578947368419e+01 0.0000000000000000e+00 
1.3684210526315789e+01 0.0000000000000000e+00 
1.4736842105263159e+01 0.0000000000000000e+00 
1.5789473684210529e+01 0.0000000000000000e+00 
1.6842105263157890e+01 0.0000000000000000e+00 
1.7894736842105260e+01 0.0000000000000000e+00 
1.8947368421052630e+01 0.0000000000000000e+00 
2.0000000000000000e+01 0.0000000000000000e+00 
2.0000000000000000e+01 1.1111111111111109e+00 
2.0000000000000000e+01 2.2222222222222219e+00 
2.0000000000000000e+01 3.3333333333333339e+00 
2.0000000000000000e+01 4.4444444444444446e+00 
2.0000000000000000e+01 5.5555555555555554e+00 
2.0000000000000000e+01 6.6666666666666679e+00 
2.0000000000000000e+01 7.7777777777777786e+00 
2.0000000000000000e+01 8.8888888888888893e+00 
2.0000000000000000e+01 1.0000000000000000e+01 
1.8947368421052630e+01 1.0000000000000000e+01 
1.7894736842105260e+01 1.0000000000000000e+01 
1.6842105263157890e+01 1.0000000000000000e+01 
1.5789473684210529e+01 1.0000000000000000e+01 
1.4736842105263159e+01 1.0000000000000000e+01 
1.3684210526315789e+01 1.0000000000000000e+01 
1.2631578947368419e+01 1.0000000000000000e+01 
1.1578947368421050e+01 1.0000000000000000e+01 
1.0526315789473680e+01 1.0000000000000000e+01 
9.4736842105263150e+00 1.0000000000000000e+01 
8.4210526315789469e+00 1.0000000000000000e+01 
7.3684210526315788e+00 1.0000000000000000e+01 
6.3157894736842106e+00 1.0000000000000000e+01 
5.2631578947368416e+00 1.0000000000000000e+01 
4.2105263157894726e+00 1.0000000000000000e+01 
3.1578947368421049e+00 1.0000000000000000e+01 
2.1052631578947372e+00 1.0000000000000000e+01 
1.0526315789473679e+00 1.0000000000000000e+01 
0.0000000000000000e+00 1.0000000000000000e+01 
0.0000000000000000e+00 8.8888888888888893e+00 
0.0000000000000000e+00 7.7777777777777777e+00 
0.0000000000000000e+00 6.6666666666666661e+00 
0.0000000000000000e+00 5.5555555555555554e+00 
0.0000000000000000e+00 4.4444444444444446e+00 
0.0000000000000000e+00 3.3333333333333330e+00 
0.0000000000000000e+00 2.2222222222222210e+00 
0.0000000000000000e+00 1.1111111111111101e+00 
1.6344140015179269e+00 3.9200004326178499e+00 
2.5247909933188102e+00 4.3982444174069126e+00 
1.7766356179397980e+00 4.7296853720100369e+00 
9.6060833441909099e-01 9.6699059813541455e-01 
1.9039391665580911e+01 9.6699059813541377e-01 
1.9039391665580911e+01 9.0330094018645859e+00 
9.3305811599582933e-01 9.0575673843346376e+00 
1.6657693017902300e+00 8.3649621696182450e+00 
6.5261457844084259e-01 8.2735272362656112e+00 
1.0198857718437950e+00 7.5408709839338162e+00 
7.3827493476266504e-01 6.8369268956479017e+00 
1.7351283148883330e+00 5.7650780737194287e+00 
7.8828649339732637e-01 6.0276807496031353e+00 
1.1079778841358201e+00 5.1586032790089913e+00 
3.5672875398414381e+00 9.3148735833539895e+00 
2.6375819987221298e+00 8.9805654025987032e+00 
3.6571063543527500e+00 8.5218204612406971e+00 
1.4991120116076710e+00 6.6099391777843994e+00 
1.7634021598229479e+00 9.2266416276385144e+00 
2.6180430222676478e+00 1.0057058040652600e+00 
1.7729424685693891e+00 7.7959097233381036e-01 
1.9188931399524570e+01 1.9356160772994211e+00 
1.9526930219530328e+01 2.8009709505010032e+00 
1.7096337119208339e+01 2.8767406587703221e+00 
1.7931917695693869e+01 3.2849276279723219e+00 
1.7366353164342119e+01 3.9304518560657091e+00 
1.9291990871407041e+01 3.8888888888888888e+00 
1.9553245502002369e+01 5.0017211100352146e+00 
1.6581074594596899e+01 7.3458579185588568e-01 
1.6248278050159069e+01 1.5338854037978600e+00 
1.5657126397584831e+01 8.3531142496244093e-01 
1.8070344535280679e+01 4.7860349222963281e+00 
1.6926104746776939e+01 5.0238285044830908e+00 
1.7361538890700160e+01 4.4717010188315898e-01 
1.8111512750307121e+01 7.8607358899516933e-01 
1.7289506930565931e+01 1.1122713766551471e+00 
4.3385073268394070e+00 8.9060321357614036e-01 
3.5672875398414390e+00 6.8512641664601270e-01 
8.1095375372166978e-01 1.9355418733095640e+00 
1.7101210730105102e+01 8.7683258451966086e+00 
1.7901462186399250e+01 9.1252214449770879e+00 
1.5613862073039190e+01 9.3158565054167219e+00 
1.8980114228156211e+01 7.5408709839338144e+00 
1.9347385421559160e+01 8.2735272362656094e+00 
1.3516735479651420e+01 6.5284389940104646e+00 
1.4509182601131471e+01 6.0150464843770788e+00 
1.4232678402298980e+01 6.8261579731252446e+00 
1.8406389648840339e+01 8.2971333786147063e+00 
1.7536816522969811e+01 8.0131273708285882e+00 
1.8117702394992190e+01 7.3624154008643732e+00 
1.5009822012780621e+01 8.1430625967346550e+00 
1.3998736832823990e+01 8.6227039985907226e+00 
1.4506410586133800e+01 7.5538405256952554e+00 
4.4817378264279197e+00 1.7350342036352910e+00 
3.8195857016404688e+00 2.4272747714471761e+00 
3.6571063543527500e+00 1.4781795387593040e+00 
7.6323230504895323e-01 3.9519964296398320e+00 
1.2510738583348939e+00 2.8292937625988590e+00 
5.1432672411574814e+00 1.1703921137017550e+00 
1.8500887988392339e+01 6.6099391777843968e+00 
1.7656937167633519e+01 6.3557275358583736e+00 
1.8256916897178701e+01 5.7703673825736059e+00 
1.9211713506602681e+01 6.0276807496031353e+00 
1.8860564549569531e+01 5.0748619890918221e+00 
1.4451485620629891e+01 1.5816192848181940e+00 
1.4607761867949860e+01 6.8266054296610035e-01 
1.5053508677983070e+01 1.1716193075949819e+00 
1.2074132801615990e+01 9.1237809468040787e+00 
1.4575887498915890e+01 3.1621878454956112e+00 
1.3405525829752291e+01 2.8101903324093969e+00 
1.4051385231434571e+01 2.2283154733415609e+00 
1.2240472428351231e+01 4.3003621696296586e+00 
1.2386615952742980e+01 5.6498314586999001e+00 
1.1489894122472521e+01 5.1257151173028372e+00 
1.3705391289379850e+01 5.5869846408308774e+00 
1.2786456659838739e+01 6.3627451902239640e+00 
1.1402855666215871e+01 8.3738773197152216e+00 
1.2735232263415361e+01 8.3648896871096454e+00 
1.2457922794553021e+01 2.1195003339145000e+00 
1.3307309248596271e+01 1.6677622369166050e+00 
1.0522614522071880e+01 8.0096102403373930e+00 
1.0319982525816100e+01 7.0416008951729836e+00 
1.1090911384908431e+01 7.1960160242893298e+00 
1.2385991918143880e+01 1.0127516425774921e+00 
9.6107855388948593e+00 8.6236862042328060e+00 
1.0520764409337760e+01 8.9477026609159029e+00 
9.8582422817171569e+00 9.3689667896499618e+00 
9.7842884419322047e+00 3.4862271296246372e+00 
8.9355752344589927e+00 2.6405059349999229e+00 
9.8393582456482012e+00 2.4251045925750061e+00 
8.2429320306480971e+00 8.3551700675282561e+00 
8.8037348763289902e+00 9.1217978320560658e+00 
7.9680582921577283e+00 9.3336267150112828e+00 
7.9107294944152313e+00 6.5445515471879636e+00 
8.7631791737482985e+00 6.3026149889282319e+00 
8.3363610549216709e+00 7.2627906052340370e+00 
9.1186517992368898e+00 7.0572685439951739e+00 
9.0568147381971418e+00 7.9971609753647446e+00 
9.1218687972789354e+00 1.8738206173916510e+00 
8.8531749108660147e+00 8.7181310670524259e-01 
9.6840606719022677e+00 1.3557355544010590e+00 
6.7169678175110867e+00 9.3472622014131392e+00 
6.4002866462789134e+00 8.4610774856594748e+00 
7.3027557215934760e+00 8.8266779231442616e+00 
8.0066300542926054e+00 6.8248439022092544e-01 
4.8294313589827338e+00 7.4519417947102538e+00 
4.9666204757994423e+00 6.4148996148685509e+00 
5.5169076464895861e+00 7.1128127064492350e+00 
4.8649934295064418e-01 2.8101521138844938e+00 
1.3157894736842110e+01 9.2125237755481670e+00 
1.4178261261003961e+01 9.4273047038159596e+00 
1.5428442248344711e+01 1.7807640709502781e+00 
6.4383119816020091e+00 1.6809516280830801e+00 
5.9159895093995214e+00 2.6445286652787381e+00 
5.5330630268934708e+00 1.8525775136602991e+00 
4.4811223278912777e+00 8.2634534214081174e+00 
5.1501947288280352e+00 8.7862757847050510e+00 
4.3385073268394052e+00 9.1093967864238614e+00 
1.1347965843873469e+01 7.7073833677580927e-01 
1.0637527888390220e+01 1.9733757483039549e+00 
1.3214222479225890e+01 7.1094450983172264e-01 
1.3947855491268699e+01 9.6952323671144247e-01 
6.7150541012439939e+00 4.0689518139365264e+00 
7.2761689332433122e+00 3.0952613437441152e+00 
7.7053096251916262e+00 4.1369217797035800e+00 
8.3501183092827738e+00 1.7232768657828650e+00 
5.9679993429709057e+00 9.1448248712532294e+00 
5.2775265103978022e+00 4.2274114784264194e+00 
5.9687859287764180e+00 3.6991909880037550e+00 
5.9687859287764198e+00 4.7274863697439367e+00 
1.1273251911584911e+01 9.2492058281138103e+00 
1.5337335783795901e+01 6.7250124330723287e+00 
4.0845903285944987e+00 6.1578940965464524e+00 
4.2713807498629466e+00 6.8651179632998351e+00 
2.8267016074611768e+00 1.9256141551863339e+00 
2.4508970052751908e+00 5.4383082216593621e+00 
1.6363380261974680e+01 3.5214527749522260e+00 
1.5361938219827501e+01 3.5279535978880001e+00 
1.5988504584818781e+01 2.6238171020883940e+00 
1.6317534894011679e+01 9.1601232789277720e+00 
1.7095341086213342e+01 7.1343366769358711e+00 
1.6137270648090240e+01 7.3645617494705924e+00 
1.6330484782652071e+01 6.4692912491172452e+00 
1.3588829973882980e+01 7.7241287441900548e+00 
1.5827153946526661e+01 8.3336262488854498e+00 
1.5381170947048940e+01 7.5091094321300753e+00 
1.0594140059250300e+01 1.0520508585297050e+00 
1.0428388767705110e+01 2.9645980348170720e+00 
9.7017245403821271e+00 6.6435897952237273e+00 
1.0485081567585389e+01 6.2915664512266174e+00 
5.6295109822492186e+00 5.5104209085320859e+00 
6.2892838608433053e+00 5.5014404365000082e+00 
5.9759721276387632e+00 8.4750967758978413e-01 
3.8212440077216971e+00 3.4177584793410838e+00 
2.9147088211665881e+00 2.8717369559012860e+00 
1.4721998910748560e+01 4.1743513521771387e+00 
1.4044673175102471e+01 3.7430741505678382e+00 
9.6432601768462263e+00 5.9373906510952779e+00 
1.0410456798327870e+01 5.4999648560816663e+00 
1.2353141464100110e+01 3.1992741195521490e+00 
4.5515610803044970e-01 5.0058259778407086e+00 
3.4804700149981338e+00 5.3182288423835651e+00 
1.7576129854669791e+01 5.4329909990312384e+00 
1.6990961465066039e+01 5.9059606655991432e+00 
1.9261725065237339e+01 6.8369268956479008e+00 
9.0286668401861991e+00 4.4557443306502993e+00 
8.7882512898484411e+00 3.6155331346719870e+00 
6.7314174423842266e+00 7.7999433191468199e+00 
7.2972818980552727e+00 7.0359405455377724e+00 
7.4977497716218844e+00 7.8831636174699229e+00 
7.3728652304297952e+00 1.1526772262706679e+00 
7.4640870238047592e+00 2.1326710217018312e+00 
9.9008348619788382e+00 6.1801879106385560e-01 
1.6682580516494141e+01 8.0257915493599086e+00 
1.4981345289870550e+01 8.9688941747501172e+00 
6.7476177975459679e+00 6.6502720972540508e-01 
6.5351324409359162e+00 3.1421870126572711e+00 
6.7290355268927451e+00 2.4500787631640568e+00 
1.1519684887337410e+01 1.5568061573677081e+00 
6.8990974932185098e+00 6.1131717937922723e+00 
1.2810298776930431e+01 7.2814830535334929e+00 
1.1996650216186820e+01 6.6245902765800579e+00 
2.3147987336877041e+00 3.4642272458467640e+00 
3.1081561274771108e+00 3.6933265049824482e+00 
1.8291245980916109e+01 1.6659031469107770e+00 
1.8770073781067250e+01 2.8135291800608488e+00 
1.7923806779370189e+01 2.5083958274485458e+00 
1.8393423228652310e+01 3.9388397935235901e+00 
1.1529347554647639e+01 3.3796995964260099e+00 
1.1054395439458620e+01 2.7724879466821850e+00 
1.1663841899217740e+01 2.3779013064841412e+00 
8.2774806303677764e+00 4.9410885537010936e+00 
8.1324700725013130e+00 2.9863186450433989e+00 
4.3443066695640660e+00 4.4870116330586711e+00 
4.7081766812221266e+00 3.6825349682428650e+00 
4.3084850934441414e+00 5.4530805536885749e+00 
1.4960386013503800e+01 5.0854425856698784e+00 
1.3998507441657740e+01 4.6620632896065164e+00 
1.3084654478743250e+01 4.9213578282951662e+00 
1.0032632914618469e+01 4.2833799354835040e+00 
1.1916519853051360e+01 7.5728152102867732e+00 
7.5972203389276460e+00 5.1764915208889919e+00 
7.8741044223932599e+00 5.8190794458942019e+00 
9.6972912671713463e+00 5.0194260843233236e+00 
1.0639845054135611e+01 4.7640966372605682e+00 
1.7063311649740040e+01 1.9896620215594270e+00 
1.1405144372224420e+01 4.3381163825213704e+00 
1.0769707305389090e+01 3.7769255687996570e+00 
1.6740101526513209e+00 1.6419483761376179e+00 
2.0855366249142540e+00 2.5199591693700691e+00 
3.1986402473346280e+00 7.9793992452098852e+00 
1.3113066870154411e+01 3.8652454570927341e+00 
2.5350017811809251e+00 8.0125518595711345e+00 
1.5609699275795281e+01 4.3911425837612716e+00 
1.6196040130653369e+01 5.4759124715196776e+00 
3.2913573605524329e+00 6.3001823448302696e+00 
5.0279828129179878e+00 5.0689486380392426e+00 
6.9268070115143310e+00 4.9912601523964808e+00 
3.8507220018009072e+00 7.5190485259026136e+00 
4.8391052318957346e+00 2.5956198681397131e+00 
1.1373454679246381e+01 5.9490091032308214e+00 
1.9231370978961990e+00 7.4048236951329400e+00 
1.5430798591868379e+01 5.8713148113793334e+00 
1.6468276933913781e+01 4.3793603443252787e+00 
1.4882931821899801e+01 2.4005312881582608e+00 
8.9459375945088517e+00 5.4671925292885426e+00 
5.3203961386662844e+00 3.2735218136308299e+00 
5.5649343660703980e+00 7.9996410189848719e+00 
2.8943862021980591e+00 7.1666235675120031e+00 
9.7711118192129724e+00 7.5078466362957812e+00 
2.3682178323733192e+00 6.3746842371760390e+00 
3.5307168160001381e+00 4.3055243640742020e+00 
6.2869705609505520e+00 7.1416019334582899e+00 
5.8738691291754828e+00 6.2362016656127324e+00 

57 58 59 59
2 60 1 1
21 61 20 20
62 29 30 30
63 48 49 49
64 65 66 66
50 67 66 66
65 64 63 63
68 69 70 70
72 73 71 71
69 68 74 74
72 46 75 75
4 76 3 3
77 2 3 3
61 21 78 78
79 22 23 23
80 81 82 82
83 24 84 84
86 87 85 85
82 88 89 89
91 92 90 90
93 94 5 5
60 95 56 56
32 96 97 97
29 62 28 28
34 98 33 33
99 27 100 100
101 102 103 103
106 104 105 105
107 108 109 109
111 112 110 110
57 113 114 114
93 6 115 115
116 117 118 118
84 119 120 120
122 123 121 121
124 36 37 37
126 127 125 125
128 129 130 130
129 131 132 132
124 133 134 134
126 135 136 136
139 137 138 138
13 140 12 12
143 141 142 142
145 146 144 144
148 149 147 147
151 152 150 150
152 153 154 154
156 157 155 155
158 159 160 160
161 8 9 9
164 162 163 163
165 95 114 114
166 167 35 35
123 87 168 168
171 169 170 170
173 174 172 172
141 148 154 154
175 11 12 12
157 176 146 146
136 177 178 178
180 181 179 179
156 182 161 161
159 158 183 183
185 186 184 184
187 38 142 142
188 109 103 103
189 163 190 190
47 63 75 75
112 111 191 191
192 68 59 59
193 194 195 195
61 91 19 19
96 32 196 196
199 197 198 198
200 108 134 134
202 201 107 107
176 157 203 203
146 176 204 204
148 141 143 143
206 138 205 205
208 207 186 186
174 173 43 43
169 171 209 209
211 111 210 210
87 123 122 122
125 212 213 213
215 206 214 214
135 126 216 216
217 52 53 53
58 218 192 192
220 219 117 117
119 26 221 221
222 181 223 223
225 226 224 224
228 169 227 227
229 156 10 10
105 96 230 230
98 34 231 231
226 147 160 160
43 173 183 183
232 8 227 227
234 233 170 170
135 235 140 140
122 14 15 15
149 41 160 160
225 236 150 150
237 238 132 132
36 124 166 166
54 113 53 53
58 239 240 240
241 242 243 243
244 83 120 120
247 245 246 246
11 175 203 203
181 222 248 248
182 249 228 228
251 250 210 210
189 218 252 252
212 253 254 254
81 80 243 243
129 128 255 255
256 222 144 144
143 38 39 39
134 257 237 237
236 258 259 259
260 261 215 215
17 90 85 85
86 262 195 195
261 264 263 263
139 238 257 257
265 191 266 266
171 110 115 115
174 44 71 71
73 72 267 267
255 128 268 268
212 125 194 194
267 72 269 269
48 63 47 47
2 77 60 60
266 239 114 114
262 86 92 92
78 21 22 22
62 30 97 97
104 106 99 99
271 253 270 270
201 202 198 198
218 189 272 272
163 273 207 207
258 236 274 274
162 275 190 190
186 185 179 179
110 171 276 276
130 129 277 277
128 263 245 245
102 101 131 131
101 200 237 237
27 99 221 221
117 116 106 106
278 66 74 74
52 69 51 51
201 198 230 230
97 96 105 105
279 188 102 102
271 280 89 89
194 125 281 281
194 193 270 270
95 165 55 55
191 265 76 76
242 241 78 78
83 242 79 79
282 260 214 214
186 179 274 274
108 107 231 231
167 166 108 108
170 283 276 276
250 251 184 184
249 182 145 145
169 209 232 232
11 203 229 229
146 145 155 155
142 141 137 137
40 148 39 39
110 112 93 93
209 6 7 7
44 174 43 43
173 172 284 284
90 17 18 18
241 243 262 262
122 121 178 178
16 87 15 15
158 41 42 42
284 224 159 159
255 254 131 131
253 271 279 279
126 136 127 127
268 126 213 213
235 135 247 247
264 144 204 204
76 265 77 77
76 4 94 94
46 72 45 45
64 66 278 278
281 127 121 121
177 136 140 140
128 130 263 263
126 268 216 216
67 50 51 51
278 285 269 269
221 99 116 116
28 62 100 100
140 235 175 175
177 13 14 14
137 141 286 286
133 124 187 187
113 70 217 217
68 192 287 287
118 88 120 120
119 84 25 25
218 288 250 250
272 285 287 287
137 139 133 133
277 139 206 206
235 247 176 176
156 229 157 157
201 196 98 98
231 34 167 167
224 284 289 289
236 289 290 290
282 259 248 248
289 236 225 225
169 228 234 234
185 184 283 283
200 101 103 103
134 133 257 257
223 181 249 249
156 155 182 182
152 151 153 153
147 226 152 152
181 180 249 249
181 248 258 258
274 236 208 208
250 184 273 273
88 82 244 244
193 82 280 280
58 57 239 239
288 218 58 58
264 261 256 256
145 144 223 223
195 281 168 168
82 193 80 80
188 279 199 199
105 230 197 197
102 131 253 253
254 255 268 268
285 272 275 275
275 162 172 172
251 210 276 276
111 211 191 191
65 49 50 50
63 64 75 75
95 60 265 265
60 56 1 1
91 61 241 241
61 19 20 20
97 30 31 31
104 99 100 100
130 277 215 215
222 256 260 260
163 189 252 252
290 289 164 164
129 255 131 131
139 277 238 238
153 151 205 205
259 282 151 151
124 134 166 166
38 187 37 37
197 199 220 220
88 118 219 219
192 218 272 272
287 285 278 278
93 112 94 94
93 5 6 6
71 44 45 45
275 172 73 73
239 266 211 211
265 266 114 114
242 244 81 81
243 80 262 262
161 182 227 227
10 156 9 9
43 183 42 42
183 173 284 284
115 6 209 209
209 7 232 232
117 106 197 197
105 104 97 97
285 275 267 267
269 72 64 64
148 40 149 149
148 147 154 154
233 234 180 180
182 228 227 227
58 240 288 288
210 111 276 276
245 247 216 216
136 135 140 140
268 213 254 254
216 268 128 128
160 159 224 224
226 225 152 152
207 208 290 290
236 259 150 150
257 133 139 139
237 257 238 238
262 92 241 241
262 80 195 195
97 104 62 62
97 31 32 32
176 203 235 235
204 176 246 246
191 211 266 266
112 191 76 76
280 271 270 270
270 253 212 212
113 54 165 165
113 57 59 59
83 244 242 242
24 83 23 23
193 280 270 270
80 193 195 195
196 201 230 230
196 32 33 33
222 223 144 144
222 260 282 282
69 74 67 67
69 52 217 217
119 25 26 26
116 118 119 119
109 108 200 200
237 200 134 134
88 219 89 89
120 88 244 244
166 134 108 108
36 166 35 35
137 286 138 138
142 137 133 133
89 280 82 82
89 219 220 220
179 185 233 233
274 179 181 181
136 178 121 121
127 281 125 125
278 74 287 287
278 269 64 64
125 213 126 126
281 195 194 194
109 188 202 202
231 107 201 201
199 198 188 188
220 199 271 271
17 85 16 16
87 86 168 168
245 216 128 128
246 245 264 264
177 140 13 13
178 177 14 14
279 102 253 253
279 271 199 199
250 273 252 252
250 288 210 210
154 147 152 152
141 154 286 286
249 180 228 228
223 249 145 145
162 164 284 284
284 159 183 183
239 57 114 114
211 210 240 240
95 55 56 56
114 95 265 265
78 241 61 61
78 22 79 79
103 102 188 188
103 109 200 200
106 105 197 197
99 106 116 116
263 130 261 261
263 264 245 245
272 189 190 190
272 287 192 192
131 254 253 253
131 101 132 132
252 218 250 250
252 273 163 163
100 27 28 28
100 62 104 104
65 63 49 49
66 65 50 50
92 86 85 85
85 87 16 16
205 151 214 214
286 154 153 153
277 129 238 238
277 206 215 215
175 12 140 140
203 175 235 235
233 180 179 179
170 233 185 185
212 254 213 213
212 194 270 270
168 86 195 195
168 281 121 121
19 91 18 18
92 91 241 241
187 142 133 133
37 187 124 124
77 3 76 76
60 77 265 265
75 64 72 72
75 46 47 47
286 153 205 205
139 138 206 206
207 290 163 163
186 207 273 273
81 243 242 242
82 81 244 244
256 144 264 264
260 256 261 261
110 93 115 115
110 276 111 111
172 162 284 284
73 172 174 174
68 70 59 59
74 68 287 287
118 117 219 219
118 120 119 119
282 248 222 222
151 282 214 214
67 51 69 69
66 67 74 74
221 116 119 119
221 26 27 27
230 96 196 196
230 198 197 197
59 58 192 192
59 70 113 113
283 170 185 185
276 283 251 251
167 108 231 231
35 167 34 34
171 170 276 276
171 115 209 209
229 10 11 11
157 229 203 203
184 251 283 283
273 184 186 186
215 214 260 260
215 261 130 130
143 142 38 38
143 39 148 148
94 112 76 76
94 4 5 5
71 45 72 72
174 71 73 73
234 170 169 169
234 228 180 180
155 157 146 146
182 155 145 145
232 7 8 8
232 227 169 169
247 135 216 216
247 246 176 176
164 163 290 290
164 289 284 284
205 214 206 206
205 138 286 286
161 227 8 8
156 161 9 9
240 239 211 211
288 240 210 210
202 107 109 109
198 202 188 188
165 114 113 113
55 165 54 54
79 23 83 83
79 242 78 78
258 274 181 181
259 258 248 248
132 101 237 237
129 132 238 238
149 40 41 41
149 160 147 147
158 160 41 41
183 158 42 42
217 53 113 113
217 70 69 69
84 120 83 83
25 84 24 24
190 163 162 162
190 275 272 272
204 246 264 264
146 204 144 144
220 117 197 197
220 271 89 89
150 259 151 151
225 150 152 152
224 289 225 225
224 226 160 160
121 123 168 168
121 127 136 136
208 186 274 274
208 236 290 290
267 269 285 285
73 267 275 275
122 178 14 14
122 15 87 87
98 231 201 201
33 98 196 196
90 18 91 91
90 92 85 85


VARIABLES= "X" "Y"
ZONE F=POINT, I=1 J=1 K =100
3.20404  8.96359
3.00742  8.86357
3.18765  9.12706
2.95576  8.95025
3.47946  8.84114
3.35466  8.9526
3.52589  8.77207
3.40733  8.65206
3.12248  8.89582
3.23324  8.8749
3.59786  8.65602
3.1733  8.74951
3.62999  8.53653
3.31043  8.90251
3.39278  8.88149
3.34038  9.1913
2.90679  9.02909
3.43606  9.04891
3.26177  8.86283
3.16021  8.91131
3.57751  9.14643
3.48855  8.75946
3.08228  9.10614
3.1714  8.76021
3.17043  8.7659
3.00243  9.07035
2.97924  9.03889
3.28102  9.08082
2.98447  8.88024
3.1479  9.11773
3.31705  8.68845
2.87734  8.93762
3.4488  9.14175
3.25902  9.10308
3.08949  8.87494
3.12535  9.15453
3.44526  9.15833
3.58566  8.84789
3.31265  9.21492
3.4196  9.2055
3.06515  9.08509
2.95835  8.98762
3.48468  8.81452
2.9207  8.90844
2.80789  8.99556
3.58013  9.12603
3.09072  9.04268
3.1569  8.90947
3.19204  9.0866
3.54087  9.12226
2.88779  8.91965
3.52553  8.58615
3.41884  8.78677
3.16511  8.80481
3.02023  9.00935
3.3481  8.67886
3.18782  8.85926
3.55095  8.67856
3.28757  8.84859
3.3181  8.77886
3.41511  9.23443
3.06188  8.86781
3.61899  8.7394
2.85287  9.04709
3.21598  8.90429
3.36286  9.05649
2.76019  9.01156
3.39519  8.96908
2.77414  9.02787
3.26213  9.13001
2.84015  9.0095
3.5362  9.20711
3.35164  8.82399
3.45264  9.21108
3.17422  8.79265
3.49541  8.9595
2.90974  8.97974
3.45648  9.06495
3.09873  8.98036
2.99214  8.99149
3.4065  9.19376
3.41582  8.96066
3.43548  8.77844
2.97301  9.07941
3.57627  9.04504
3.58131  8.763
3.4352  8.73115
3.27705  8.78867
3.38085  8.75141
3.22816  8.98137
2.94582  8.8647
3.26957  8.97662
3.58846  8.61336
3.11677  8.82731
3.54101  8.79709
3.4871  8.6343
3.11483  8.78423
3.11209  8.78301
3.51174  8.95552
3.03552  9.02975
